<?xml version="1.0"?>
<VTKFile type="UnstructuredGrid"  version="0.1"  >
<UnstructuredGrid>
<Piece  NumberOfPoints="833" NumberOfCells="1570">
<Points>
<DataArray  type="Float64"  NumberOfComponents="3"  format="ascii">-0.9987569212189223 0.04984588566069748 0  -0.9987569212189223 -0.04984588566069723 0  -0.9888308262251285 -0.1490422661761745 0  -0.969077286229078 -0.2467573976902936 0  -0.9396926207859084 -0.3420201433256687 0  -0.9009688679024191 -0.433883739117558 0  -0.8532908816321557 -0.5214352033794979 0  -0.7971325072229226 -0.6038044103254772 0  -0.7330518718298266 -0.6801727377709191 0  -0.6616858375968597 -0.749781202967734 0  -0.5837436722347905 -0.8119380057158559 0  -0.4999999999999996 -0.8660254037844388 0  -0.4112871031306116 -0.9115058523116731 0  -0.318486650251685 -0.9479273461671316 0  -0.2225209339563146 -0.9749279121818236 0  -0.1243437046474858 -0.992239206600172 0  -0.02493069173807316 -0.9996891820008162 0  0.07473009358642436 -0.9972037971811801 0  0.17364817766693 -0.9848077530122081 0  0.2708404681430051 -0.962624246950012 0  0.3653410243663945 -0.9308737486442045 0  0.4562106573531629 -0.8898718088114687 0  0.5425462638657597 -0.8400259231507713 0  0.6234898018587334 -0.7818314824680299 0  0.698236818086073 -0.7158668492597183 0  0.7660444431189778 -0.6427876096865396 0  0.8262387743159945 -0.5633200580636227 0  0.8782215733702283 -0.4782539786213186 0  0.9214762118704076 -0.3884347962746947 0  0.9555728057861406 -0.2947551744109047 0  0.9801724878485438 -0.1981461431993977 0  0.9950307753654013 -0.09956784659581729 0  1 0 0  0.9950307753654014 0.09956784659581666 0  0.9801724878485438 0.1981461431993976 0  0.9555728057861407 0.2947551744109042 0  0.9214762118704076 0.3884347962746947 0  0.8782215733702285 0.4782539786213182 0  0.8262387743159949 0.5633200580636221 0  0.766044443118978 0.6427876096865393 0  0.6982368180860729 0.7158668492597184 0  0.6234898018587336 0.7818314824680298 0  0.5425462638657594 0.8400259231507714 0  0.4562106573531631 0.8898718088114685 0  0.365341024366395 0.9308737486442042 0  0.2708404681430052 0.962624246950012 0  0.1736481776669304 0.984807753012208 0  0.07473009358642439 0.9972037971811801 0  -0.02493069173807291 0.9996891820008162 0  -0.1243437046474852 0.9922392066001721 0  -0.2225209339563143 0.9749279121818236 0  -0.3184866502516843 0.9479273461671318 0  -0.4112871031306114 0.9115058523116732 0  -0.5000000000000002 0.8660254037844385 0  -0.5837436722347896 0.8119380057158566 0  -0.6616858375968592 0.7497812029677344 0  -0.7330518718298263 0.6801727377709194 0  -0.7971325072229225 0.6038044103254774 0  -0.8532908816321556 0.5214352033794981 0  -0.900968867902419 0.4338837391175582 0  -0.9396926207859083 0.3420201433256689 0  -0.9690772862290778 0.2467573976902938 0  -0.9888308262251285 0.1490422661761747 0  0 -3.33066907387547e-16 0  0.2922351073784631 0.4064742824134499 0  -0.2283892344877995 0.445489683178082 0  -0.5006223129745928 1.249000902703301e-16 0  0.4851417124831425 -0.1235322591753062 0  -0.2283892344877995 -0.4454896831780823 0  0.2244381293544702 -0.4974059892257727 0  0.6017400542999141 0.2190154685308969 0  -0.5581446696297816 -0.3410751076665679 0  -0.5581446696297816 0.341075107666568 0  0.04888157636984874 0.6522793058172992 0  0.5318003682503499 -0.4338991867093802 0  -0.02655531792237059 -0.6858388666358241 0  0.2846822903539273 0.1036158799115578 0  0.2057127456600814 -0.2065170392348358 0  0.5499950705631735 0.4828159805817372 0  0.7365712010015821 -0.03676074036240858 0  -0.3332123644358574 -0.2036218372401125 0  -0.2503111564872963 0.1529619636172051 0  0.02918230080088918 0.3894107416776539 0  0.3119038197247055 0.6693125881472082 0  -0.2086642468434529 0.7083237716612585 0  -0.4533085568472715 0.5829019520470146 0  -0.4533085568472716 -0.5829019520470144 0  -0.7255122091309201 -0.1374604227155882 0  -0.7255122091309201 0.1374604227155883 0  -0.05009008488438581 -0.2556093177500643 0  0.3851790873862939 -0.6671497493660733 0  0.6709552008695683 -0.254288853195751 0  -0.2603565207201746 -0.7190461267637986 0  -0.01274908188504958 -0.4693251432427898 0  0.180383544466418 -0.7001037260965679 0  0.3847163576179377 -0.2973202411100294 0  -0.04995432007195971 0.1995423851608914 0  -0.1678190342621316 -0.0998261742388182 0  0.1403205714878223 0.2316624653136229 0  0.7349932089154046 0.3539540744095583 0  0.7879319621210741 0.1537397135554779 0  0.5698193606007648 0.03876274873020472 0  0.4558478162384035 0.3273736178084163 0  -0.4419539887971066 0.1852825496193718 0  -0.7464085988633791 -0.3252307397060302 0  -0.7464085988633791 0.3252307397060303 0  0.02064469536321903 0.827826152484757 0  -0.6299332241648122 0.5158342404302462 0  -0.6649689944704764 -0.4839644683910337 0  0.70800971084343 -0.4326557279765403 0  -0.3223706017906134 -0.01040698776897026 0  -0.5054246806996193 -0.1745782100334494 0  -0.4005901524784139 -0.416410058674076 0  -0.1042571859310078 0.5683311063186439 0  -0.4005901524784139 0.4164100586740762 0  0.1877980753282089 0.5464445901741976 0  0.1206822009066526 -0.3580378865832485 0  0.4460042554300219 0.1536417414647964 0  0.1738116160219865 0.7624188124093614 0  -0.8321051542296078 6.938893903907228e-17 0  -0.3796152393980446 0.7404669187156476 0  0.4930547478800816 0.6553511379173387 0  0.5542774023972679 -0.610736590905896 0  0.06765100167578174 -0.8273503122395667 0  -0.1263627236672069 -0.8227899655417861 0  0.1732568394682733 -0.03313223201635654 0  0.3244981183472287 -0.0945514879573747 0  0.3964818767539355 0.5278166619520006 0  0.8225174138930775 -0.2094386686091706 0  0.3862762456383678 -0.5051310802049933 0  -0.1330531929054866 -0.5703508657222929 0  -0.1167274650741578 0.3387993963362483 0  -0.326769620862521 0.283933631656089 0  0.2899951183081392 0.2550067652537422 0  0.08441079514704673 -0.5842176964322349 0  -0.1490115292621843 0.8450863768180583 0  0.2737504708168863 -0.814776874033456 0  -0.142353501387633 0.04833782824577596 0  0.06123953108016653 -0.1447132819643286 0  0.5259110046002531 -0.2630012123273205 0  -0.2028836910358441 -0.2907872567933579 0  0.6961680963734469 0.4954410198387236 0  -0.5896348602892731 0.1963655996997491 0  -0.4157703440840377 -0.7345043818619621 0  0.4262046142439533 0.009495858005196894 0  -0.3034808298607995 -0.575360661977006 0  -0.655077525044371 5.551115123125783e-17 0  -0.2988533483177751 0.5829350221229744 0  0.2606280324088774 -0.3621577007324048 0  0.06109885742534778 0.1213198421233271 0  0.5883360859796991 0.3533614497113013 0  0.3043653793591053 0.8070919162104671 0  -0.5444158473228305 -0.6826758797378625 0  -0.5444158473228299 0.682675879737863 0  -0.8346144062426474 -0.2203666761707024 0  -0.8558623315149202 0.173016302948436 0  0.8612845745432718 0.03178923580507788 0  0.6132723301615656 -0.08714674393221392 0  0.1628110939985944 0.3655319136460566 0  0.05746843722344426 0.5194633991763268 0  -0.436019945709395 -0.2881300360956253 0  -0.07596061144871569 0.6983647226519493 0  -0.6275255320060281 -0.2275110374504959 0  -0.5226873339000571 -0.469341295132707 0  -0.1125799974105092 -0.3851292258287221 0  0.619011024823678 0.6063877701182406 0  -0.2763102364367201 0.8192202812544818 0  0.7745348125424459 -0.3258032396315157 0  -0.518060795045081 0.4596654131466001 0  0.6694847456509949 0.1140659043624926 0  -0.4164279919677704 -0.08967120904698817 0  -0.3237023997545292 -0.8247802633914654 0  0.8468194484731224 -0.0896151494438422 0  0.4258293249936974 0.7649442768810276 0  -0.4443864162574289 0.304692440297835 0  -0.1429733645462529 -0.705840003340848 0  0.6708719183416081 -0.5559925608496961 0  -0.3198578181913611 -0.3250798040022018 0  0.4976994035910101 -0.722786655132186 0  0.3915320294649418 -0.7878115305337891 0  0.3013332399688708 -0.585568912488973 0  -0.05021176719619284 -0.1065627974183157 0  -0.6376977535120266 -0.6033436678963818 0  -0.5778499190094819 -0.08523074965409963 0  -0.1137054587997089 0.4537398183584781 0  -0.4069729011762343 0.07227633527667994 0  0.1017761104609 -0.4710042480313572 0  -0.2095259224924231 0.2645747565293701 0  0.8313172614604811 0.2723171946851911 0  0.7228946573831219 -0.1512956814359499 0  0.6036725534446189 -0.345871914207299 0  0.1705451400955359 0.08284736515785829 0  -0.7432283975853058 0.454177419441099 0  -0.7886115584549602 -0.4294549654143447 0  0.210520553651675 0.8682430176792441 0  0.1024345016269031 -0.2481784681422972 0  -0.8322817485593992 -0.1101956133222516 0  0.005824306220235123 -0.3559598780800155 0  -0.02393057554055716 -0.5773091896046807 0  -0.656853418329663 0.3875346040967115 0  0.2023789243848113 0.6558288354998336 0  -0.5778499190094819 0.08335021638867035 0  0.8934476994401067 0.1341710538308732 0  0.3910989747205646 -0.1850985530637385 0  0.2900570811000597 0.5137964995259913 0  0.452764781948902 0.4354733387228008 0  0.4254647729341454 -0.4009256457985336 0  0.07502847893507417 -0.7203260015172291 0  0.2868290874409293 -0.7087819889995405 0  0.1884682971157424 -0.5957245682636509 0  0.7140991219034133 0.2413235030500445 0  0.1696702818122023 -0.8041727389113376 0  -0.0474122446989387 0.09415469461590877 0  -0.02118145593510014 0.2989760764325769 0  -0.144895576760654 0.1537255187907586 0  -0.0679575666902707 -0.9068307063252722 0  -0.6878282916538929 0.2367020581784782 0  0.2741614604364078 -0.001581553459900201 0  0.2887101103557479 -0.2647410788026469 0  0.4522629467729725 -0.586590978490136 0  -0.06798126544149206 0.9071469441830431 0  -0.2251516232954611 -0.8119800599910756 0  0.7531456777622132 0.06094452615252965 0  0.5941459501568455 -0.1872721025851182 0  -0.216657295148843 -0.6276165006205845 0  -0.228089505904504 -0.1874590519798677 0  -0.26831543489379 -0.09525095123827111 0  -0.1134800437664088 -0.1811377597871832 0  -0.3760665750606548 0.5157676543792213 0  -0.1992448771787426 0.6064188495583912 0  -0.3441211600145373 -0.6658722220387769 0  -0.343194775940648 0.1865417328802096 0  0.1169933041623286 0.8414073019181091 0  -0.02917948186022158 -0.817566329330312
[...]
<PointData  Scalars="f_65"> 
<DataArray  type="Float64"  Name="f_65"  format="ascii">2.9800000000000000e+02  2.9800000000000000e+02  2.9800000000000000e+02  2.9800000000000000e+02  2.9800000000000000e+02  2.9800000000000000e+02  2.9800000000000000e+02  2.9800000000000000e+02  2.9800000000000000e+02  2.9800000000000000e+02  2.9800000000000000e+02  2.9800000000000000e+02  2.9800000000000000e+02  2.9800000000000000e+02  2.9800000000000000e+02  2.9800000000000000e+02  2.9800000000000000e+02  2.9800000000000000e+02  2.9800000000000000e+02  2.9800000000000000e+02  2.9800000000000000e+02  2.9800000000000000e+02  2.9800000000000000e+02  2.9800000000000000e+02  2.9800000000000000e+02  2.9800000000000000e+02  2.9800000000000000e+02  2.9800000000000000e+02  2.9800000000000000e+02  2.9800000000000000e+02  2.9800000000000000e+02  2.9800000000000000e+02  2.9800000000000000e+02  2.9800000000000000e+02  2.9800000000000000e+02  2.9800000000000000e+02  2.9800000000000006e+02  2.9800000000000000e+02  2.9800000000000000e+02  2.9800000000000000e+02  2.9800000000000000e+02  2.9800000000000000e+02  2.9800000000000000e+02  2.9800000000000000e+02  2.9800000000000000e+02  2.9800000000000000e+02  2.9800000000000000e+02  2.9800000000000000e+02  2.9800000000000000e+02  2.9800000000000000e+02  2.9800000000000000e+02  2.9800000000000000e+02  2.9800000000000000e+02  2.9800000000000000e+02  2.9800000000000000e+02  2.9800000000000000e+02  2.9800000000000000e+02  2.9800000000000000e+02  2.9800000000000000e+02  2.9800000000000000e+02  2.9800000000000000e+02  2.9800000000000000e+02  2.9800000000000000e+02  3.2512797435176520e+02  3.1831755036138964e+02  3.1831757420609523e+02  3.1831758552181213e+02  3.1831756222830325e+02  3.1831758637533136e+02  3.1703598872247170e+02  3.1398507622075732e+02  3.1350144568734368e+02  3.1350142315928036e+02  3.1350137743639152e+02  3.1232689001618115e+02  3.1232691056363637e+02  3.2263393776472947e+02  3.2281908676805273e+02  3.1057346419069808e+02  3.1034836665221968e+02  3.2098417654599240e+02  3.2278958122853754e+02  3.2098414662765504e+02  3.1031097044346484e+02  3.1031101044884616e+02  3.1031106269529607e+02  3.1031108111011667e+02  3.1031105381332128e+02  3.1031103183685906e+02  3.2328436280313844e+02  3.0900155591973152e+02  3.1113762493350788e+02  3.0923627801867650e+02  3.1913807507378510e+02  3.1092463022032513e+02  3.1870389461216809e+02  3.2397817178679992e+02  3.2409188106100015e+02  3.2313455732166199e+02  3.0704380566653242e+02  3.0761514657336181e+02  3.1626392517834563e+02  3.1656897899078751e+02  3.1888741506611223e+02  3.0711443487225495e+02  3.0711440258807613e+02  3.0649413581893151e+02  3.0711438674226690e+02  3.0674745131747267e+02  3.0641963022474778e+02  3.2230105141848401e+02  3.1735811279449558e+02  3.1605545242073913e+02  3.1605540731800568e+02  3.1605543859550579e+02  3.1605539368569816e+02  3.2124875752197954e+02  3.1908107718583182e+02  3.0851131142182749e+02  3.0631272767597045e+02  3.0631284173364304e+02  3.0685097697959816e+02  3.0664365454907784e+02  3.0640283591611842e+02  3.0629787089206343e+02  3.2428243610785989e+02  3.2202364721080193e+02  3.1328585138800929e+02  3.0555175875899499e+02  3.1413974552332365e+02  3.1580724211949547e+02  3.2163855801237008e+02  3.2003567976808955e+02  3.2107563503797149e+02  3.1565962989097949e+02  3.0511759791961958e+02  3.0505196086429294e+02  3.2451381807390294e+02  3.2445699167822465e+02  3.1573252895616997e+02  3.2171170831345313e+02  3.0528801318789601e+02  3.1463264179769237e+02  3.0577019909102705e+02  3.2018936389262302e+02  3.1362959177070979e+02  3.1346692827235171e+02  3.1346693221482121e+02  3.1971805156217022e+02  3.2462656811551130e+02  3.1232897416091970e+02  3.0490970990974824e+02  3.0440987103447281e+02  3.0440960236448439e+02  3.0487952815417452e+02  3.0440965336345670e+02  3.0494262916243036e+02  3.1470138778723350e+02  3.2077684123834933e+02  3.1770553754683067e+02  3.1770592566113908e+02  3.1171806691070145e+02  3.1302067801754680e+02  3.1171815211788817e+02  3.2075301698098178e+02  3.0472364388695780e+02  3.0481643160976910e+02  3.0594175861346872e+02  3.1209323487774748e+02  3.1259480012351486e+02  3.2019719469380527e+02  3.0379499238054393e+02  3.0542327917534294e+02  3.0429968776627999e+02  3.1723894397669488e+02  3.1103419763921983e+02  3.0449776711785154e+02  3.1947620163355958e+02  3.0420058027006723e+02  3.0409698360212042e+02  3.1334284721374746e+02  3.2475088969472864e+02  3.0418565626550975e+02  3.1585693353037925e+02  3.1918207446150399e+02  3.2048529865148868e+02  3.1881810682199233e+02  3.2203284217067642e+02  3.0433334975967608e+02  3.1030543992692213e+02  3.1197449790110022e+02  3.2415108432059714e+02  3.0451214458236075e+02  3.0321671928618315e+02  3.0343883954046493e+02  3.2316913480320767e+02  3.0597489447012441e+02  3.2168392230613773e+02  3.1605574402122033e+02  3.0932256908736247e+02  3.1232716239455698e+02  3.1586554153917081e+02  3.0294692843850117e+02  3.2004047055704109e+02  3.1566815432941729e+02  3.1440423147102535e+02  3.1584097228314670e+02  3.1087530754522692e+02  3.0924094660971565e+02  3.1451906662657598e+02  3.0968846674324806e+02  3.0677250028155788e+02  3.2482598899320925e+02  3.2268678821829621e+02  3.2391530503920109e+02  3.0265675130352832e+02  3.1074931508865166e+02  3.2308538651874954e+02  3.2095836984401859e+02  3.1021952006587770e+02  3.0264086251485094e+02  3.0583431755076481e+02  3.0961322775123318e+02  3.1458229216363253e+02  3.1314854386524223e+02  3.2275935164717953e+02  3.2292510627994352e+02  3.2388644307802099e+02  3.1405618632330851e+02  3.1405615983428652e+02  3.0986149363932100e+02  3.2098177328846526e+02  3.0551775945062997e+02  3.0694148478168415e+02  3.0300303629042361e+02  3.0344265879812701e+02  3.0344269061432055e+02  3.2232579419879062e+02  3.2379960084838388e+02  3.2310862466423953e+02  3.0235523358788117e+02  3.2387304419260209e+02  3.1711480658785189e+02  3.0284032143751682e+02  3.0312703149450903e+02  3.2487967219717024e+02  3.0781465860739911e+02  3.1861041605887397e+02  3.0289910464598330e+02  3.1082453573531910e+02  3.0877499285415450e+02  3.0289906210068335e+02  3.0241203100145441e+02  3.0298314749600775e+02  3.1954173706321433e+02  3.1857003574953137e+02  3.1399042554247308e+02  3.1930317310245823e+02  3.1858839636387353e+02  3.0832168852214454e+02  3.0866091026819066e+02  3.0231052740836532e+02  3.0257109070730507e+02  3.0285381225736660e+02  3.0205281483087873e+02  3.0717120034683745e+02  3.1915232815664962e+02  3.1555490225860444e+02  3.1360799027629798e+02  3.1738271753521269e+02  3.1842329572768756e+02  3.1602438408982238e+02  3.2051605787666779e+02  3.1524981759181640e+02  3.0846823860946836e+02  3.1014743749832121e+02  3.1639673397814357e+02  3.2479593294586533e+02  3.0254735921603293e+02  3.0757671461871382e+02  3.1056547942318656e+02  3.1032056629344527e+02  3.2226842412349703e+02  3.1053328492292576e+02  3.0265259472747130e+02  3.0769633393427398e+02  3.0926844560924718e+02  3.1041066743214583e+02  3.0209922250817715e+02  3.0304025405846880e+02  3.2491251407635843e+02  3.2123835800861286e+02  3.0185850928458922e+02  3.0271908134835388e+02  3.0210459694617549e+02  3.1005613366344994e+02  3.1053170914762103e+02  3.0719825474133347e+02  3.2404503305214905e+02  3.0960326121516795e+02  3.0266527782369661e+02  3.0196255924748385e+02  3.1534722558586157e+02  3.1953509823406398e+02  3.1685500268894924e+02  3.1461639652769719e+02  3.1457206883586360e+02  3.1703689339919663e+02  3.1461645910383157e+02  3.0209216009912234e+02  3.2173918776752788e+02  3.2169689351909062e+02  3.1937255208609326e+02  3.0188425334155448e+02  3.2315977810398488e+02  3.2360688935297077e+02  3.2314506146846730e+02  3.1218574695441708e+02  3.0910223978770767e+02  3.0170639542731413e+02  3.1484537121051181e+02  3.1827295495401552e+02  3.1502405317852589e+02  3.0672099425732239e+02  3.0240214390206950e+02  3.2179812387278781e+02  3.0228593302455437e+02  3.1673632733858614e+02  3.1851251248037994e+02  3.2051479766515263e+02  3.1810428916859939e+02  3.1149007541209437e+02  3.1056692512637966e+02  3.1354466743737242e+02  3.0913288425053941e+02  3.1162884169036113e+02  3.0192383640483285e+02  3.0146605631986239e+02  3.0235862601090611e+02  3.0895693103238148e+02  3.1663667398546096e+02  3.0143025995086322e+02  3.2035966802288914e+02  3.1602218825560834e+02  3.0248154916178731e+02  3.2034296984914414e+02  3.1816717668011080e+02  3.0152271912707300e+02  3.2086835496124013e+02  3.0694431542576922e+02  3.1172535458039164e+02  3.0130705469543045e+02  3.0938853858547282e+02  3.0132611019016184e+02  3.0234266370491986e+02  3.1309668649836237e+02  3.0862809900959741e+02  3.0172422219051765e+02  3.1318814097059220e+02  3.2380538425101821e+02  3.1415273670979832e+02  3.2124160902306915e+02  3.1990884450816043e+02  3.2226287094683744e+02  3.1342592058415835e+02  3.1013562535846592e+02  3.0859225022523287e+02  3.1799038573264380e+02  3.0196614711931301e+02  3.1605338141709711e+02  3.1346981092669677e+02  3.1704687732783560e+02  3.1351638145277411e+02  3.1692901791937550e+02  3.2397576524654187e+02  3.2166788868540789e+02  3.1811169652538138e+02  3.1929182478074762e+02  3.2224352912263231e+02  3.1174958895168078e+02  3.0684322172901142e+02  3.1422566783403579e+02  3.1340445903415542e+02  3.1750187531007822e+02  3.1180033858163205e+02  3.0163693318317479e+02  3.1223854720288125e+02  3.2053550838574063e+02  3.0156929193819548e+02  3.0691393446277539e+02  3.0197312086657314e+02  3.2150412623307369e+02  3.1313716886855497e+02  3.1257588252593786e+02  3.1245783975419823e+02  3.0818688074830106e+02  3.0212444658625111e+02  3.0379636296153700e+02  3.2086488686086045e+02  3.0089137655890113e+02  3.0695936203421780e+02  3.0752113267008821e+02  3.0185387512379742e+02  3.0295993557410208e+02  3.2154429506538702e+02  3.1929889453924471e+02  3.1355993336208979e+02  3.1716103524385915e+02  3.1262429127963406e+02  3.1746950077891012e+02  3.2238819959640773e+02  3.0800500406689179e+02  3.0994459728561321e+02  3.0142430680577013e+02  3.0711454538257300e+02  3.2420391371033350e+02  3.0880921490689468e+02  3.1607223396574676e+02  3.0897488408639020e+02  3.0792489065741756e+02  3.0669412760388661e+02  3.0708680087193409e+02  3.2292623413471387e+02  3.2499011993029740e+02  3.0974068645232887e+02  3.2061821015289610e+02  3.1076276674356069e+02  3.0097976300189919e+02  3.0143208455156537e+02  3.0558701220227738e+02  3.1523147275296964e+02  3.1513408537660678e+02  3.0856545728201735e+02  3.1413523865132402e+02  3.0648747455156104e+02  3.1663155878198808e+02  3.0766172222306227e+02  3.2219159211514619e+02  3.1722719984337243e+02  2.9800000000000000e+02  3.2500260996762273e+02  3.2453291248445350e+02  3.2208469756407527e+02  3.0602605102793558e+02  3.0954676406061543e+02  3.0131920075191846e+02  2.9800000000000000e+02  3.0566212007926811e+02  3.0139969716524087e+02  3.0157856948783405e+02  3.0752931838906176e+02  3.0173546146617065e+02  3.0136697331491541e+02  3.0749603897917990e+02  3.0173531449399985e+02  3.1038335768260305e+02  3.1972684786939749e+02  3.1352920177679079e+02  3.1583215463873489e+02  3.0437730676040752e+02  3.2002624900777943e+02  3.0884596540713346e+02  3.1855334305339875e+02  2.9800000000000000e+02  2.9800000000000000e+02  3.1298822533259562e+02  3.1191366511075677e+02  3.2390895654950970e+02  3.0671812210768360e+02  3.1657896682735458e+02  3.1135861020788116e+02  3.1576776236963480e+02  3.1671578813751415e+02  3.1789934920583158e+02  3.1674621847946395e+02  3.1952878543855559e+02  3.1138909765391918e+02  3.2105081413459976e+02  3.2385120938121491e+02  2.9800000000000000e+02  3.0091256725837002e+02  3.1644990554095995e+02  3.1944386133304488e+02  3.0939861209848135e+02  3.0727828066370967e+02  3.0717784204608222e+02  2.9800000000000000e+02  3.0141265559353275e+02  3.2107468421277792e+02  3.2000067837304124e+02  3.0064157999117594e+02  3.2045903392297720e+02  3.2487128200054099e+02  3.0568827394102772e+02  3.0154886441965380e+02  3.0541870466390424e+02  3.2300810772110384e+02  3.0145141820870560e+02  3.0117031871800168e+02  3.1711698425384515e+02  3.1115306139788419e+02  3.0560275141926155e+02  3.0518430426064327e+02  3.2064182940215028e+02  3.1803267943843014e+02  3.0087402192791689e+02  3.2298597992339364e+02  3.0841680307366238e+02  3.1635624953450508e+02  3.2220516538491336e+02  3.1791034279330438e+02  3.0803816060880371e+02  3.1670065894059957e+02  3.0571389773697189e+02  3.1057540245336560e+02  3.1320658695372163e+02  3.1966524506698971e+02  3.0139511882715902e+02  3.1556169961973939e+02  3.1851618660484570e+02  3.0642607195547640e+02  3.0504026426983131e+02  3.1464731556886915e+02  3.1805482515969521e+02  3.1205205699459736e+02  3.0132186135248060e+02  3.2318272957193165e+02  3.0588617068838261e+02  3.1276392063641958e+02  3.0517141939226104e+02  2.9800000000000000e+02  3.1461328102500039e+02  2.9799999999999994e+02  3.0859848334057745e+02  3.1085573027306151e+02  3.1876719163546198e+02  3.0101474398510118e+02  3.0652780134881101e+02  3.0715382141716128e+02  3.2131101050781916e+02  3.0607252070143534e+02  3.0112314019299907e+02  3.0927851614691622e+02  3.1818611400893485e+02  3.1254483751567324e+02  2.9800000000000000e+02  3.1774695919061475e+02  3.2354448934124400e+02  3.1119524190294635e+02  3.0461149344615347e+02  3.0480466690200598e+02  3.0382653655720964e+02  2.9800000000000000e+02  3.0114867577228051e+02  3.2318015364155684e+02  3.0445451392398172e+02  3.1970035265091582e+02  3.1785345167127946e+02  3.0126719902568465e+02  3.0536514968148310e+02  3.0108053875376510e+02  3.1219295372326366e+02  3.1409895918926628e+02  3.2234988115925586e+02  3.0885928227759717e+02  3.0729065995804444e+02  3.2449451768957135e+02  3.0780306115830729e+02  3.1545123542865764e+02  3.1260301884593503e+02  3.0116208743106796e+02  3.1258138777632496e+02  3.0478734631031455e+02  3.2215406544297713e+02  3.0451609834993496e+02  3.1794984109682298e+02  3.2164431759928181e+02  3.1944343081789111e+02  3.1959547447598436e+02  3.1170578111431200e+02  3.0869102710300803e+02  2.9800000000000000e+02  2.9800000000000000e+02  3.1498654233252932e+02  3.2502237325512345e+02  3.2456870548977884e+02  3.0056424448972103e+02  3.1427283653777420e+02  3.1601795033069368e+02  3.1123270884622843e+02  3.0968018978240582e+02  3.1529012852694154e+02  3.0350054350314872e+02  2.9800000000000000e+02  3.0406231174597286e+02  3.2365498812751719e+02  3.1270251666683549e+02  3.0445222099124044e+02  3.2309928462938177e+02  3.2449713939296811e+02  3.2342991268670932e+02  3.1703474756811653e+02  2.9800000000000000e+02  3.1974882174557280e+02  3.0632990142416384e+02  3.0446450195863326e+02  3.1885580345396187e+02  3.1921259491579889e+02  3.1135607528660177e+02  3.1654524940217340e+02  3.1734261651506927e+02  3.1666560699087819e+02  3.1453664298133873e+02  3.2005068808339428e+02  3.2052806114605636e+02  3.2046986443398674e+02  3.2340943733358773e+02  3.0913965989975532e+02  3.1928657369002377e+02  3.1729579431301562e+02  3.2017543998131976e+02  3.1939226657733582e+02  3.2436285245503035e+02  3.2445778898670443e+02  3.2220057048379152e+02  3.0127437911956162e+02  3.1014264380509110e+02  3.0974454828122992e+02  3.1936644043951441e+02  2.9800000000000000e+02  3.1160967762143082e+02  3.1414546673512035e+02  3.1295285304631113e+02  3.0163144433521330e+02  3.1726535782422849e+02  3.0101790493133979e+02  3.0062909477535578e+02  3.1280684645227853e+02  2.9800000000000000e+02  3.1526309619275617e+02  3.0065258534587741e+02  3.0850498411324679e+02  3.0963996654421010e+02  3.0893692566852570e+02  2.9800000000000000e+02  3.0105391445093755e+02  3.1358217593906164e+02  3.1921282249330017e+02  3.2108339021125397e+02  3.1761895038251225e+02  3.1277468340371104e+02  3.0868357163663387e+02  3.0766758814281661e+02  3.0113397801377556e+02  3.0068021532626051e+02  3.0602203210448477e+02  3.0390479689653762e+02  3.0428409108482748e+02  3.0069634062194183e+02  3.2411466950016512e+02  3.0110108635127966e+02  3.1435000957819511e+02  3.0812758866558841e+02  3.1389233190985692e+02  3.2226463729754852e+02  3.2311577399693954e+02  3.1435564480288224e+02  3.2436133672007236e+02  3.2455547843207358e+02  3.2123348098485292e+02  3.1113677995382619e+02  3.1418510249292666e+02  3.0538630878412079e+02  3.0644189137415015e+02  3.0440992874575375e+02  3.0440992265458931e+02  3.0382452050729529e+02  2.9800000000000000e+02  3.0079639731589668e+02  3.0389189665465580e+02  3.0557081576923235e+02  3.1465580035300775e+02  3.1139910228463992e+02  3.0811436335867467e+02  3.2076911502001843e+02  3.1427010349035635e+02  3.1768100633293608e+02  3.1060828581722370e+02  3.0445153603149356e+02  3.2394867685488066e+02  3.1262128861058000e+02  3.1367156071165448e+02  3.1550331142975682e+02  3.0508826539723134e+02  3.0077574223732512e+02  3.2332294428773446e+02  3.0688459938022282e+02  3.0759126414322282e+02  3.0075205205830019e+02  3.0084333479700024e+02  3.0395395657419414e+02  3.1031610753858092e+02  3.2196294287995249e+02  3.0106290431558256e+02  3.1544281323520096e+02  3.1458758297747994e+02  3.1672091282859037e+02  3.0544090809481020e+02  3.0424895509214292e+02  3.0049878104956622e+02  3.1120353067284742e+02  3.1019987003487938e+02  3.1144353375150405e+02  3.1698450082687287e+02  3.1024230792087724e+02  3.0854656765098764e+02  3.0452301481340982e+02  3.0070307509219015e+02  3.0511982310961594e+02  3.2463541046573386e+02  3.0526873982451258e+02  3.2348193158352524e+02  3.2242751610508913e+02  3.2451565751517063e+02  3.0709429180261162e+02  3.1055031351864358e+02  3.1895560643076675e+02  3.2117162836437831e+02  3.2354252122489532e+02  3.2305020109571291e+02  3.2212362973610561e+02  3.2321895514362319e+02  3.1238959054919013e+02  3.1827743774732892e+02  3.2277584516243695e+02  3.1397880618463756e+02  3.1732331317014678e+02  3.1992343798479584e+02  3.2337240424595410e+02  3.0086900119873530e+02  3.1224261319246671e+02  3.1281808379550324e+02  3.1552018400424373e+02  3.1592566000095132e+02  3.1106891143926202e+02  3.0889320542677734e+02  3.0607866064529901e+02  3.0719343667199144e+02  3.0862354725828391e+02  3.0078679915082034e+02  2.9800000000000000e+02  3.1593011306240680e+02  3.1836678652711424e+02  2.9800000000000000e+02  3.1802199584865645e+02  3.2052194743960212e+02  3.1878090626870397e+02  3.1303479606667651e+02  3.0150801357966549e+02  2.9800000000000000e+02  3.0686755993032313e+02  3.1850811642787619e+02  3.0077103546533493e+02  3.0090859788417805e+02  2.9800000000000000e+02  3.0404392758839793e+02  3.0410927231527603e+02  3.1704340716188688e+02  3.1778867032281181e+02  3.0471630663678752e+02  3.0422307852211515e+02  3.2235610220205825e+02  3.1200701420134948e+02  3.2175170719146621e+02  3.0056742917953363e+02  3.1456866720482208e+02  3.1972686865520831e+02  3.2505565874123550e+02  3.2382734153470852e+02  3.0532749017163002e+02  3.0098791580203761e+02  2.9800000000000000e+02  2.9800000000000000e+02  3.1497235826428101e+02  3.1493489417423928e+02  3.2261454387240843e+02  3.2189582831421927e+02  3.1578830544866378e+02  3.0774065373581550e+02  3.0978206022305784e+02  2.9800000000000000e+02  2.9800000000000000e+02  3.0036932095267844e+02  3.0365695569124483e+02  3.2186605984757927e+02  3.2087823281731187e+02  3.1395134489660762e+02  3.1284253266601348e+02  3.1501948377449520e+02  3.1550787075746678e+02  3.1853294744131119e+02  3.0479617768051537e+02  3.0069472279929238e+02  3.2070481697126939e+02  3.0334226761412418e+02  3.0410115966786702e+02  3.0542178684936681e+02  3.1990090987143651e+02  3.1327772439599130e+02  3.1467962801895914e+02  3.1462325330782039e+02  2.9800000000000000e+02  3.2052586628790510e+02  3.0034209206917376e+02  3.0856293248769583e+02  2.9800000000000000e+02  3.0367842239865473e+02  3.0053061117370265e+02  3.0060888323298758e+02  3.0068533259757282e+02  2.9800000000000000e+02  3.2230198281061968e+02  3.2360158921351496e+02  3.1827827428525649e+02  3.1701059057557211e+02  3.1856003027939994e+02  3.1955079393101420e+02  3.0088075514065457e+02  2.9800000000000000e+02  3.1076312599374103e